 Q-Chem 5.1, Q-Chem, Inc., Pleasanton, CA (2018)
 Q-Chem 5.1.1 for Intel X86 EM64T Linux

User input:
--------------------------------------------------------------

$molecule
0  1
H         -2.0801425360     0.4329727646     0.0722817289
C         -1.2129704155    -0.2295285634    -0.0097156258
H         -1.2655910941    -0.9539857247     0.8097953440
C          0.0849758188     0.5590385475     0.0510545434
O          1.2322305822    -0.2731895077    -0.1276123902
H          0.1506137362     1.1200249874     0.9943015309
H          1.2473876659    -0.8998737590     0.6150681570
H          0.1316093068     1.2841805400    -0.7645223601
H         -1.2737541560    -0.7748626513    -0.9540587845
$end

$rem
BASIS    3-21G
JOBTYPE  opt
METHOD   hf
$end

--------------------------------------------------------------

   12    -153.2218431818      5.97e-09  Convergence criterion met
 Total energy in the final basis set =     -153.2218431818
   10    -153.2227579795      8.90e-09  Convergence criterion met
 Total energy in the final basis set =     -153.2227579795
   10    -153.2229126125      3.82e-09  Convergence criterion met
 Total energy in the final basis set =     -153.2229126125
    9    -153.2229186612      5.27e-09  Convergence criterion met
 Total energy in the final basis set =     -153.2229186612
    8    -153.2229194528      5.34e-09  Convergence criterion met
 Total energy in the final basis set =     -153.2229194528
 Final energy is   -153.222919452771
 **  OPTIMIZATION CONVERGED  **
 Total job time:  3.32s(wall), 13.15s(cpu)
        *  Thank you very much for using Q-Chem.  Have a nice day.  *
 Q-Chem 5.1, Q-Chem, Inc., Pleasanton, CA (2018)
 Q-Chem 5.1.1 for Intel X86 EM64T Linux

User input:
--------------------------------------------------------------

$molecule
read
$end

$rem
BASIS       3-21G
JOBTYPE     freq
METHOD      hf
SCF_GUESS   read

vibman_print 6
$end

--------------------------------------------------------------

             Standard Nuclear Orientation (Angstroms)
    I     Atom           X                Y                Z
 ----------------------------------------------------------------
    1      H       2.0864859420    -0.3960755252     0.0208458814
    2      C       1.2173838862     0.2501054728    -0.0200668329
    3      H       1.2741917931     0.9472517694     0.8102579657
    4      C      -0.0730883640    -0.5717723251     0.0474810929
    5      O      -1.2429827761     0.2592031123    -0.1090166578
    6      H      -0.1136362158    -1.1331170527     0.9754591442
    7      H      -1.2970984360     0.8968248799     0.6154096164
    8      H      -0.1122621596    -1.2734543241    -0.7710583490
    9      H       1.2404081517     0.8149464681    -0.9432665559
 ----------------------------------------------------------------

    9    -153.2229194541      4.60e-09  Convergence criterion met
 Total energy in the final basis set =     -153.2229194541

                    Orbital Energies (a.u.)
 --------------------------------------------------------------

 Alpha MOs
 -- Occupied --
-20.434 -11.217 -11.159  -1.336  -1.015  -0.849  -0.674  -0.617
 -0.596  -0.539  -0.518  -0.467  -0.427

          Ground-State Mulliken Net Atomic Charges

     Atom                 Charge (a.u.)
  ----------------------------------------
      1 H                     0.201304
      2 C                    -0.633395
      3 H                     0.193492
      4 C                    -0.088877
      5 O                    -0.676253
      6 H                     0.184182
      7 H                     0.369419
      8 H                     0.225654
      9 H                     0.224473
  ----------------------------------------
  Sum of atomic charges =    -0.000000

                    Cartesian Multipole Moments
 -----------------------------------------------------------------
    Charge (ESU x 10^10)
                 0.0000
    Dipole Moment (Debye)
         X       1.4653      Y       0.1071      Z       1.4449
       Tot       2.0607
    Quadrupole Moments (Debye-Ang)
        XX     -22.6369     XY      -1.0744     YY     -18.3007
        XZ      -2.2338     YZ       1.4723     ZZ     -19.0984

 Frequency:       270.48                 336.65                 423.38
 Force Cnst:      0.0467                 0.0744                 0.3005
 Red. Mass:       1.0825                 1.1141                 2.8454
 IR Intens:        7.477                175.721                 10.896
 Frequency:       891.39                 933.29                1110.11
 Force Cnst:      0.5090                 1.4832                 3.1804
 Red. Mass:       1.0873                 2.8900                 4.3803
 IR Intens:        5.050                 11.428                 41.917
 Frequency:      1155.77                1233.75                1411.48
 Force Cnst:      0.9606                 1.4614                 1.5773
 Red. Mass:       1.2205                 1.6295                 1.3437
 IR Intens:       87.530                  7.091                 16.841
 Frequency:      1495.61                1536.97                1571.55
 Force Cnst:      1.5341                 1.7377                 1.7485
 Red. Mass:       1.1640                 1.2485                 1.2016
 IR Intens:       13.510                 27.941                  8.512
 Frequency:      1662.84                1670.62                1693.36
 Force Cnst:      1.7005                 1.7101                 1.8439
 Red. Mass:       1.0438                 1.0400                 1.0914
 IR Intens:        7.542                  3.008                  0.462
 Frequency:      3188.63                3197.40                3247.14
 Force Cnst:      6.3740                 6.2960                 6.8032
 Red. Mass:       1.0640                 1.0452                 1.0951
 IR Intens:       60.741                 18.327                 15.557
 Frequency:      3276.26                3289.82                3858.43
 Force Cnst:      6.9463                 6.9976                 9.3558
 Red. Mass:       1.0984                 1.0974                 1.0666
 IR Intens:       27.536                 51.625                  6.711

 STANDARD THERMODYNAMIC QUANTITIES AT   298.15 K  AND     1.00 ATM

   This Molecule has  0 Imaginary Frequencies
   Zero point vibrational energy:       53.545 kcal/mol

   Atom    1 Element H  Has Mass    1.00783
   Atom    2 Element C  Has Mass   12.00000
   Atom    3 Element H  Has Mass    1.00783
   Atom    4 Element C  Has Mass   12.00000
   Atom    5 Element O  Has Mass   15.99491
   Atom    6 Element H  Has Mass    1.00783
   Atom    7 Element H  Has Mass    1.00783
   Atom    8 Element H  Has Mass    1.00783
   Atom    9 Element H  Has Mass    1.00783
   Molecular Mass:    46.041890 amu
   Principal axes and moments of inertia in amu*Bohr^2:
                             1           2           3
    Eigenvalues --       53.23428   197.65457   224.65773
          X               0.99976     0.01312    -0.01740
          Y              -0.01217     0.99849     0.05359
          Z               0.01808    -0.05337     0.99841
   Rotational Symmetry Number is   1
   The Molecule is an Asymmetric Top
   Translational Enthalpy:        0.889 kcal/mol
   Rotational Enthalpy:           0.889 kcal/mol
   Vibrational Enthalpy:         54.367 kcal/mol
   gas constant (RT):             0.592 kcal/mol
   Translational Entropy:        37.406  cal/mol.K
   Rotational Entropy:           22.385  cal/mol.K
   Vibrational Entropy:           4.178  cal/mol.K

   Total Enthalpy:               56.737 kcal/mol
   Total Entropy:                63.969  cal/mol.K

 Total job time:  1.31s(wall), 5.95s(cpu)
        *  Thank you very much for using Q-Chem.  Have a nice day.  *
