 Q-Chem 5.1, Q-Chem, Inc., Pleasanton, CA (2018)
 Q-Chem 5.1.1 for Intel X86 EM64T Linux

User input:
--------------------------------------------------------------

$molecule
0  3
O       0.0000000000    -0.0002298572     0.0000000000
H      -0.0000000000     0.0009194289    -1.2568516685
H       0.0000000000     0.0009194289     1.2568516685
$end

$rem
BASIS       3-21G
JOBTYPE     freq
METHOD      hf
!SCF_GUESS   read
UNRESTRICTED  false
MAX_SCF_CYCLES   2000
vibman_print 6
! SCF_ALGORITHM  DIIS_GDM
!
$end

--------------------------------------------------------------

   43     -75.3907265002      5.14E-09 Convergence criterion met
 Total energy in the final basis set = -75.39072650
   70     -75.3907264587      5.50E-09 Convergence criterion met
 Total energy in the final basis set = -75.39072646
  129     -75.3907264587      7.34E-09 Convergence criterion met
 Total energy in the final basis set = -75.39072646
    8     -75.3907265528      3.30E-09 Convergence criterion met
 Total energy in the final basis set = -75.39072655
   62     -75.3907263633      8.01E-09 Convergence criterion met
 Total energy in the final basis set = -75.39072636
   13     -75.3907298717      6.68E-10 Convergence criterion met
 Total energy in the final basis set = -75.39072987
   12     -75.3907298717      1.63E-09 Convergence criterion met
 Total energy in the final basis set = -75.39072987
   72     -75.3907264857      4.60E-09 Convergence criterion met
 Total energy in the final basis set = -75.39074791
   11     -75.3907064814      3.34E-09 Convergence criterion met
 Total energy in the final basis set = -75.39070648
   75     -75.3907264857      9.65E-09 Convergence criterion met
 Total energy in the final basis set = -75.39072649
  110     -75.3907264857      6.59E-09 Convergence criterion met
 Total energy in the final basis set = -75.39072649
   60     -75.3907264380      5.29E-09 Convergence criterion met
 Total energy in the final basis set = -75.39072644
   12     -75.3907265333      2.55E-09 Convergence criterion met
 Total energy in the final basis set = -75.39072653
   12     -75.3907064814      6.85E-09 Convergence criterion met
 Total energy in the final basis set = -75.39070648
   11     -75.3907479124      3.25E-09 Convergence criterion met
 Total energy in the final basis set = -75.39074791

                    Orbital Energies (a.u.)
 --------------------------------------------------------------

 Alpha MOs
 -- Occupied --
-20.577  -1.375  -0.716  -0.579  -0.669  -0.272

 Beta MOs
 -- Occupied --
-20.531  -1.182  -0.606  -0.522

          Ground-State Mulliken Net Atomic Charges

     Atom                 Charge (a.u.)
  ----------------------------------------
      1 O                    -0.234723
      2 H                     0.115582
      3 H                     0.119141
  ----------------------------------------
  Sum of atomic charges =     0.000000

                    Cartesian Multipole Moments
 -----------------------------------------------------------------
    Charge (ESU x 10^10)
                 0.0000
    Dipole Moment (Debye)
         X      -0.0000      Y       0.0015      Z       0.0256
       Tot       0.0257
    Quadrupole Moments (Debye-Ang)
        XX      -6.6732     XY       0.0000     YY      -7.7001
        XZ      -0.0000     YZ       0.0000     ZZ      -6.0629

             Standard Nuclear Orientation (Angstroms)
    I     Atom           X                Y                Z
 ----------------------------------------------------------------
    1      O       0.0000000000    -0.0002298572    -0.0000000000
    2      H      -0.0000000000     0.0009194289    -1.2568516685
    3      H      -0.0000000000     0.0009194289     1.2568516685
 ----------------------------------------------------------------

 Frequency:     -5279.94                 582.38                2073.36
 Force Cnst:     18.4929                 0.2250                 2.5526
 Red. Mass:       1.1259                 1.1259                 1.0078
 IR Intens:    62188.959                 42.717                  0.000

 STANDARD THERMODYNAMIC QUANTITIES AT   298.15 K  AND     1.00 ATM

   This Molecule has  1 Imaginary Frequencies
   Zero point vibrational energy:        3.797 kcal/mol

   Atom    1 Element O  Has Mass   15.99491
   Atom    2 Element H  Has Mass    1.00783
   Atom    3 Element H  Has Mass    1.00783
   Molecular Mass:    18.010570 amu
   Principal axes and moments of inertia in amu*Bohr^2:
                             1           2           3
    Eigenvalues --        0.00001    11.37059    11.37060
          X               0.00000     0.00000     1.00000
          Y              -0.00000     1.00000     0.00000
          Z               1.00000     0.00000     0.00000
   Rotational Symmetry Number is   1
   The Molecule is a Symmetric Top
   Translational Enthalpy:        0.889 kcal/mol
   Rotational Enthalpy:           0.592 kcal/mol
   Vibrational Enthalpy:          3.903 kcal/mol
   gas constant (RT):             0.592 kcal/mol
   Translational Entropy:        34.608  cal/mol.K
   Rotational Entropy:            9.275  cal/mol.K
   Vibrational Entropy:           0.482  cal/mol.K

   Total Enthalpy:                5.977 kcal/mol
   Total Entropy:                44.365  cal/mol.K

 Total job time:  30.91s(wall), 108.40s(cpu)
        *  Thank you very much for using Q-Chem.  Have a nice day.  *
