 Q-Chem 5.1, Q-Chem, Inc., Pleasanton, CA (2018)
 Q-Chem 5.1.1 for Intel X86 EM64T Linux

User input:
--------------------------------------------------------------

$molecule
0  3
O  0.0   0.0 0.0
H  1.0   1.0 0.0
H -1.0   1.0 0.0
$end

$rem
BASIS    3-21G
JOBTYPE  opt
METHOD   hf
$end

--------------------------------------------------------------

   14     -75.3570992857      9.34e-09  Convergence criterion met
 Total energy in the final basis set =      -75.3570992857
   12     -75.3702228744      1.81e-09  Convergence criterion met
 Total energy in the final basis set =      -75.3702228744
   11     -75.3779496628      5.65e-09  Convergence criterion met
 Total energy in the final basis set =      -75.3779496628
   11     -75.3832805555      1.93e-09  Convergence criterion met
 Total energy in the final basis set =      -75.3832805555
   11     -75.3892809321      2.00e-09  Convergence criterion met
 Total energy in the final basis set =      -75.3892809321
   11     -75.3957901063      2.12e-09  Convergence criterion met
 Total energy in the final basis set =      -75.3957901063
   11     -75.4001092869      3.58e-09  Convergence criterion met
 Total energy in the final basis set =      -75.4001092869
   11     -75.4003614248      3.32e-09  Convergence criterion met
 Total energy in the final basis set =      -75.4003614248
   11     -75.4008009269      2.00e-09  Convergence criterion met
 Total energy in the final basis set =      -75.4008009269
    9     -75.4008056206      5.78e-09  Convergence criterion met
 Total energy in the final basis set =      -75.4008056206
 Final energy is   -75.4008056205611
 **  OPTIMIZATION CONVERGED  **
 Total job time:  4.85s(wall), 13.76s(cpu)
        *  Thank you very much for using Q-Chem.  Have a nice day.  *
 Q-Chem 5.1, Q-Chem, Inc., Pleasanton, CA (2018)
 Q-Chem 5.1.1 for Intel X86 EM64T Linux

User input:
--------------------------------------------------------------

$molecule
read
$end

$rem
BASIS       3-21G
JOBTYPE     freq
METHOD      hf
SCF_GUESS   read

vibman_print 6
$end

--------------------------------------------------------------

             Standard Nuclear Orientation (Angstroms)
    I     Atom           X                Y                Z
 ----------------------------------------------------------------
    1      O       0.0000000000    -0.0002298572     0.0000000000
    2      H      -0.0000000000     0.0009194289    -1.2568516685
    3      H       0.0000000000     0.0009194289     1.2568516685
 ----------------------------------------------------------------

   14     -75.4008054672      4.10e-09  Convergence criterion met
 Total energy in the final basis set =      -75.4008054672

                    Orbital Energies (a.u.)
 --------------------------------------------------------------

 Alpha MOs
 -- Occupied --
-20.575  -1.364  -0.695  -0.666  -0.579  -0.298

 Beta MOs
 -- Occupied --
-20.536  -1.198  -0.641  -0.527

          Ground-State Mulliken Net Atomic Charges

     Atom                 Charge (a.u.)    Spin (a.u.)
  --------------------------------------------------------
      1 O                    -0.220267       0.773267
      2 H                     0.110133       0.613366
      3 H                     0.110133       0.613366
  --------------------------------------------------------
  Sum of atomic charges =     0.000000

                    Cartesian Multipole Moments
 -----------------------------------------------------------------
    Charge (ESU x 10^10)
                 0.0000
    Dipole Moment (Debye)
         X       0.0000      Y       0.0009      Z      -0.0000
       Tot       0.0009
    Quadrupole Moments (Debye-Ang)
        XX      -7.6708     XY      -0.0000     YY      -6.6453
        XZ      -0.0000     YZ       0.0000     ZZ      -6.1695

 Frequency:     -2984.13                1131.15                1920.82
 Force Cnst:      5.9072                 0.8488                 2.1908
 Red. Mass:       1.1259                 1.1259                 1.0078
 IR Intens:    10273.596                 14.164                  0.000

 STANDARD THERMODYNAMIC QUANTITIES AT   298.15 K  AND     1.00 ATM

   This Molecule has  1 Imaginary Frequencies
   Zero point vibrational energy:        4.363 kcal/mol

   Atom    1 Element O  Has Mass   15.99491
   Atom    2 Element H  Has Mass    1.00783
   Atom    3 Element H  Has Mass    1.00783
   Molecular Mass:    18.010570 amu
   Principal axes and moments of inertia in amu*Bohr^2:
                             1           2           3
    Eigenvalues --        0.00001    11.37059    11.37060
          X               0.00000     0.00000     1.00000
          Y               0.00000     1.00000     0.00000
          Z               1.00000     0.00000    -0.00000
   Rotational Symmetry Number is   1
   The Molecule is a Symmetric Top
   Translational Enthalpy:        0.889 kcal/mol
   Rotational Enthalpy:           0.592 kcal/mol
   Vibrational Enthalpy:          4.377 kcal/mol
   gas constant (RT):             0.592 kcal/mol
   Translational Entropy:        34.608  cal/mol.K
   Rotational Entropy:            9.275  cal/mol.K
   Vibrational Entropy:           0.057  cal/mol.K

   Total Enthalpy:                6.451 kcal/mol
   Total Entropy:                43.940  cal/mol.K

 Total job time:  1.16s(wall), 3.27s(cpu)
        *  Thank you very much for using Q-Chem.  Have a nice day.  *
