 Q-Chem 5.1, Q-Chem, Inc., Pleasanton, CA (2018)
 Q-Chem 5.1.1 for Intel X86 EM64T Linux

User input:
--------------------------------------------------------------

$molecule
0  3
O  0.0   0.0 0.0
H  1.0   1.0 0.0
H -1.0   1.0 0.0
$end

$rem
BASIS    3-21G
JOBTYPE  opt
METHOD   hf
$end

--------------------------------------------------------------

   14     -75.3570992857      9.34e-09  Convergence criterion met
 Total energy in the final basis set =      -75.3570992857
   12     -75.3702228744      1.81e-09  Convergence criterion met
 Total energy in the final basis set =      -75.3702228744
   11     -75.3779496628      5.65e-09  Convergence criterion met
 Total energy in the final basis set =      -75.3779496628
   11     -75.3832805555      1.93e-09  Convergence criterion met
 Total energy in the final basis set =      -75.3832805555
   11     -75.3892809321      2.00e-09  Convergence criterion met
 Total energy in the final basis set =      -75.3892809321
   11     -75.3957901063      2.12e-09  Convergence criterion met
 Total energy in the final basis set =      -75.3957901063
   11     -75.4001092869      3.58e-09  Convergence criterion met
 Total energy in the final basis set =      -75.4001092869
   11     -75.4003614248      3.32e-09  Convergence criterion met
 Total energy in the final basis set =      -75.4003614248
   11     -75.4008009269      2.00e-09  Convergence criterion met
 Total energy in the final basis set =      -75.4008009269
    9     -75.4008056206      5.78e-09  Convergence criterion met
 Total energy in the final basis set =      -75.4008056206
 Final energy is   -75.4008056205611
 **  OPTIMIZATION CONVERGED  **
 Total job time:  5.87s(wall), 13.88s(cpu)
        *  Thank you very much for using Q-Chem.  Have a nice day.  *
 Q-Chem 5.1, Q-Chem, Inc., Pleasanton, CA (2018)
 Q-Chem 5.1.1 for Intel X86 EM64T Linux

User input:
--------------------------------------------------------------

$molecule
read
$end

$rem
BASIS       3-21G
JOBTYPE     freq
METHOD      hf
SCF_GUESS   read
UNRESTRICTED  false
vibman_print 6
$end

--------------------------------------------------------------

   18     -75.3907265002      1.55E-09 Convergence criterion met
 Total energy in the final basis set = -75.39072650

                    Orbital Energies (a.u.)
 --------------------------------------------------------------

 Alpha MOs
 -- Occupied --
-20.577  -1.374  -0.715  -0.579  -0.669  -0.272

 Beta MOs
 -- Occupied --
-20.531  -1.181  -0.606  -0.522

          Ground-State Mulliken Net Atomic Charges

     Atom                 Charge (a.u.)
  ----------------------------------------
      1 O                    -0.234622
      2 H                     0.117311
      3 H                     0.117311
  ----------------------------------------
  Sum of atomic charges =     0.000000

                    Cartesian Multipole Moments
 -----------------------------------------------------------------
    Charge (ESU x 10^10)
                 0.0000
    Dipole Moment (Debye)
         X      -0.0000      Y       0.0015      Z       0.0000
       Tot       0.0015
    Quadrupole Moments (Debye-Ang)
        XX      -6.6735     XY       0.0000     YY      -7.7003
        XZ       0.0000     YZ      -0.0000     ZZ      -6.0604

             Standard Nuclear Orientation (Angstroms)
    I     Atom           X                Y                Z
 ----------------------------------------------------------------
    1      O       0.0010000000    -0.0002298572     0.0000000000
    2      H      -0.0000000000     0.0009194289    -1.2568516685
    3      H       0.0000000000     0.0009194289     1.2568516685
 ----------------------------------------------------------------
