 Q-Chem 5.1, Q-Chem, Inc., Pleasanton, CA (2018)
 Q-Chem 5.1.1 for Intel X86 EM64T Linux

User input:
--------------------------------------------------------------

$molecule
0  1
O       0.0000000000     0.0000000000     0.1141150432
H      -0.7802129012    -0.0000000000    -0.4564601728
H       0.7802129012     0.0000000000    -0.4564601728
$end

$rem
BASIS       3-21G
JOBTYPE     freq
METHOD      hf
!SCF_GUESS   read
UNRESTRICTED  false
MAX_SCF_CYCLES   2000
vibman_print 6
! SCF_ALGORITHM  DIIS_GDM
!
$end

--------------------------------------------------------------

             Standard Nuclear Orientation (Angstroms)
    I     Atom           X                Y                Z
 ----------------------------------------------------------------
    1      O       0.0000000000     0.0000000000     0.1141150432
    2      H      -0.7802129012    -0.0000000000    -0.4564601728
    3      H       0.7802129012     0.0000000000    -0.4564601728
 ----------------------------------------------------------------

   11     -75.5859596801      1.19e-09  Convergence criterion met
 Total energy in the final basis set =      -75.5859596801

             Orbital Energies (a.u.) and Symmetries
 --------------------------------------------------------------

 Alpha MOs, Restricted
 -- Occupied --
-20.427  -1.321  -0.686  -0.530  -0.477
  1 A1    2 A1    1 B1    3 A1    1 B2

 Beta MOs, Restricted
 -- Occupied --
-20.427  -1.321  -0.686  -0.530  -0.477
  1 A1    2 A1    1 B1    3 A1    1 B2

          Ground-State Mulliken Net Atomic Charges

     Atom                 Charge (a.u.)
  ----------------------------------------
      1 O                    -0.732763
      2 H                     0.366382
      3 H                     0.366382
  ----------------------------------------
  Sum of atomic charges =     0.000000

                    Cartesian Multipole Moments
 -----------------------------------------------------------------
    Charge (ESU x 10^10)
                -0.0000
    Dipole Moment (Debye)
         X      -0.0000      Y      -0.0000      Z      -2.3880
       Tot       2.3880
    Quadrupole Moments (Debye-Ang)
        XX      -3.9737     XY       0.0000     YY      -6.8379
        XZ       0.0000     YZ      -0.0000     ZZ      -5.8814

 Frequency:      1799.58                3813.59                3946.66
 Force Cnst:      2.0794                 8.8996                 9.9570
 Red. Mass:       1.0898                 1.0386                 1.0850
 IR Intens:       79.888                  0.048                  9.117

 STANDARD THERMODYNAMIC QUANTITIES AT   298.15 K  AND     1.00 ATM

   This Molecule has  0 Imaginary Frequencies
   Zero point vibrational energy:       13.666 kcal/mol

   Atom    1 Element O  Has Mass   15.99491
   Atom    2 Element H  Has Mass    1.00783
   Atom    3 Element H  Has Mass    1.00783
   Molecular Mass:    18.010570 amu
   Principal axes and moments of inertia in amu*Bohr^2:
                             1           2           3
    Eigenvalues --        2.08111     4.38169     6.46280
          X               1.00000     0.00000    -0.00000
          Y               0.00000     0.00000     1.00000
          Z               0.00000     1.00000     0.00000
   Rotational Symmetry Number is   2
   The Molecule is an Asymmetric Top
   Translational Enthalpy:        0.889 kcal/mol
   Rotational Enthalpy:           0.889 kcal/mol
   Vibrational Enthalpy:         13.667 kcal/mol
   gas constant (RT):             0.592 kcal/mol
   Translational Entropy:        34.608  cal/mol.K
   Rotational Entropy:           10.476  cal/mol.K
   Vibrational Entropy:           0.003  cal/mol.K

   Total Enthalpy:               16.037 kcal/mol
   Total Entropy:                45.087  cal/mol.K

 Total job time:  3.29s(wall), 4.84s(cpu)
        *  Thank you very much for using Q-Chem.  Have a nice day.  *
